<?xml version="1.0" encoding="UTF-8"?>

<!-- generated on Sun Aug  5 04:15:16 2018 by SUMO gui Version 0.32.0
<?xml version="1.0" encoding="UTF-8"?>

<configuration xmlns:xsi="http://www.w3.org/2001/XMLSchema-instance" xsi:noNamespaceSchemaLocation="http://sumo.dlr.de/xsd/sumoConfiguration.xsd">

    <input>
        <net-file value="data/cross.net.xml"/>
        <route-files value="data/cross.rou.xml"/>
    </input>

    <output>
        <tripinfo-output value="tripinfo.xml"/>
    </output>

    <time>
        <begin value="0"/>
        <end value="5000"/>
    </time>

    <report>
        <verbose value="true"/>
        <no-step-log value="true"/>
    </report>

    <traci_server>
        <remote-port value="54822"/>
    </traci_server>

    <gui_only>
        <gui-settings-file value="data/cross.settings.xml"/>
    </gui_only>

</configuration>
-->

<tripinfos xmlns:xsi="http://www.w3.org/2001/XMLSchema-instance" xsi:noNamespaceSchemaLocation="http://sumo.dlr.de/xsd/tripinfo_file.xsd">
    <tripinfo id="SN_1" depart="0.00" departLane="8o_0" departPos="5.10" departSpeed="5.00" departDelay="0.00" arrival="41.00" arrivalLane="4o_0" arrivalPos="119.95" arrivalSpeed="14.57" duration="41.00" routeLength="506.90" waitSteps="0" timeLoss="6.34" rerouteNo="0" devices="tripinfo_SN_1" vType="car" speedFactor="1.00" vaporized=""/>
    <tripinfo id="t3_6" depart="4.00" departLane="4i_0" departPos="5.10" departSpeed="5.00" departDelay="0.00" arrival="42.00" arrivalLane="6i_0" arrivalPos="119.95" arrivalSpeed="14.81" duration="38.00" routeLength="484.70" waitSteps="0" timeLoss="5.31" rerouteNo="0" devices="tripinfo_t3_6" vType="car" speedFactor="1.00" vaporized=""/>
    <tripinfo id="t8_4" depart="1.00" departLane="4i_0" departPos="5.10" departSpeed="5.00" departDelay="0.00" arrival="46.00" arrivalLane="11o_1" arrivalPos="119.95" arrivalSpeed="14.28" duration="45.00" routeLength="506.44" waitSteps="0" timeLoss="11.23" rerouteNo="0" devices="tripinfo_t8_4" vType="car" speedFactor="1.00" vaporized=""/>
    <tripinfo id="t8_8" depart="7.00" departLane="4i_0" departPos="5.10" departSpeed="5.00" departDelay="3.00" arrival="48.00" arrivalLane="11o_1" arrivalPos="119.95" arrivalSpeed="15.00" duration="41.00" routeLength="506.44" waitSteps="0" timeLoss="6.83" rerouteNo="0" devices="tripinfo_t8_8" vType="car" speedFactor="1.00" vaporized=""/>
    <tripinfo id="t8_12" depart="10.00" departLane="4i_0" departPos="5.10" departSpeed="5.00" departDelay="3.00" arrival="50.00" arrivalLane="11o_1" arrivalPos="119.95" arrivalSpeed="14.69" duration="40.00" routeLength="506.44" waitSteps="0" timeLoss="5.61" rerouteNo="0" devices="tripinfo_t8_12" vType="car" speedFactor="1.00" vaporized=""/>
    <tripinfo id="SN_23" depart="15.00" departLane="8o_0" departPos="5.10" departSpeed="5.00" departDelay="0.00" arrival="54.00" arrivalLane="4o_0" arrivalPos="119.95" arrivalSpeed="14.97" duration="39.00" routeLength="506.90" waitSteps="0" timeLoss="4.82" rerouteNo="0" devices="tripinfo_SN_23" vType="car" speedFactor="1.00" vaporized=""/>
    <tripinfo id="t8_19" depart="12.00" departLane="4i_0" departPos="5.10" departSpeed="5.00" departDelay="1.00" arrival="56.00" arrivalLane="11o_1" arrivalPos="119.95" arrivalSpeed="14.33" duration="44.00" routeLength="506.44" waitSteps="0" timeLoss="9.34" rerouteNo="0" devices="tripinfo_t8_19" vType="car" speedFactor="1.00" vaporized=""/>
    <tripinfo id="t3_31" depart="20.00" departLane="4i_0" departPos="5.10" departSpeed="5.00" departDelay="1.00" arrival="59.00" arrivalLane="6i_0" arrivalPos="119.95" arrivalSpeed="14.62" duration="39.00" routeLength="484.70" waitSteps="0" timeLoss="6.33" rerouteNo="0" devices="tripinfo_t3_31" vType="car" speedFactor="1.00" vaporized=""/>
    <tripinfo id="t3_45" depart="29.00" departLane="4i_0" departPos="5.10" departSpeed="5.00" departDelay="0.00" arrival="67.00" arrivalLane="6i_0" arrivalPos="119.95" arrivalSpeed="14.71" duration="38.00" routeLength="484.70" waitSteps="0" timeLoss="5.08" rerouteNo="0" devices="tripinfo_t3_45" vType="car" speedFactor="1.00" vaporized=""/>
    <tripinfo id="t7_5" depart="3.00" departLane="6o_0" departPos="5.10" departSpeed="5.00" departDelay="0.00" arrival="68.00" arrivalLane="5o_0" arrivalPos="119.95" arrivalSpeed="13.25" duration="65.00" routeLength="239.80" waitSteps="31" timeLoss="48.37" rerouteNo="0" devices="tripinfo_t7_5" vType="car" speedFactor="1.00" vaporized=""/>
    <tripinfo id="t6_2" depart="0.00" departLane="9o_0" departPos="5.10" departSpeed="5.00" departDelay="0.00" arrival="69.00" arrivalLane="10i_1" arrivalPos="110.69" arrivalSpeed="14.68" duration="69.00" routeLength="295.68" waitSteps="32" timeLoss="49.00" rerouteNo="0" devices="tripinfo_t6_2" vType="car" speedFactor="1.00" vaporized=""/>
    <tripinfo id="t3_46" depart="31.00" departLane="4i_0" departPos="5.10" departSpeed="5.00" departDelay="0.00" arrival="70.00" arrivalLane="6i_0" arrivalPos="119.95" arrivalSpeed="14.96" duration="39.00" routeLength="484.70" waitSteps="0" timeLoss="6.03" rerouteNo="0" devices="tripinfo_t3_46" vType="car" speedFactor="1.00" vaporized=""/>
    <tripinfo id="t7_7" depart="5.00" departLane="6o_0" departPos="5.10" departSpeed="5.00" departDelay="1.00" arrival="70.00" arrivalLane="5o_1" arrivalPos="119.95" arrivalSpeed="11.73" duration="65.00" routeLength="239.80" waitSteps="29" timeLoss="48.49" rerouteNo="0" devices="tripinfo_t7_7" vType="car" speedFactor="1.00" vaporized=""/>
    <tripinfo id="t7_28" depart="19.00" departLane="6o_0" departPos="5.10" departSpeed="5.00" departDelay="1.00" arrival="71.00" arrivalLane="5o_0" arrivalPos="119.95" arrivalSpeed="13.75" duration="52.00" routeLength="239.80" waitSteps="17" timeLoss="35.28" rerouteNo="0" devices="tripinfo_t7_28" vType="car" speedFactor="1.00" vaporized=""/>
    <tripinfo id="t6_10" depart="5.00" departLane="9o_0" departPos="5.10" departSpeed="5.00" departDelay="0.00" arrival="73.00" arrivalLane="10i_1" arrivalPos="110.69" arrivalSpeed="13.06" duration="68.00" routeLength="295.68" waitSteps="27" timeLoss="48.03" rerouteNo="0" devices="tripinfo_t6_10" vType="car" speedFactor="1.00" vaporized=""/>
    <tripinfo id="t7_41" depart="25.00" departLane="6o_0" departPos="5.10" departSpeed="5.00" departDelay="0.00" arrival="73.00" arrivalLane="5o_0" arrivalPos="119.95" arrivalSpeed="14.09" duration="48.00" routeLength="239.80" waitSteps="13" timeLoss="31.62" rerouteNo="0" devices="tripinfo_t7_41" vType="car" speedFactor="1.00" vaporized=""/>
    <tripinfo id="t6_13" depart="8.00" departLane="9o_0" departPos="5.10" departSpeed="5.00" departDelay="0.00" arrival="75.00" arrivalLane="10i_1" arrivalPos="110.69" arrivalSpeed="13.54" duration="67.00" routeLength="295.68" waitSteps="26" timeLoss="46.77" rerouteNo="0" devices="tripinfo_t6_13" vType="car" speedFactor="1.00" vaporized=""/>
    <tripinfo id="t7_44" depart="28.00" departLane="6o_0" departPos="5.10" departSpeed="5.00" departDelay="2.00" arrival="75.00" arrivalLane="5o_0" arrivalPos="119.95" arrivalSpeed="13.94" duration="47.00" routeLength="239.80" waitSteps="11" timeLoss="30.97" rerouteNo="0" devices="tripinfo_t7_44" vType="car" speedFactor="1.00" vaporized=""/>
    <tripinfo id="t6_18" depart="16.00" departLane="9o_0" departPos="5.10" departSpeed="5.00" departDelay="5.00" arrival="77.00" arrivalLane="10i_1" arrivalPos="110.69" arrivalSpeed="14.23" duration="61.00" routeLength="295.68" waitSteps="20" timeLoss="40.53" rerouteNo="0" devices="tripinfo_t6_18" vType="car" speedFactor="1.00" vaporized=""/>
    <tripinfo id="t6_22" depart="18.00" departLane="9o_0" departPos="5.10" departSpeed="5.00" departDelay="5.00" arrival="79.00" arrivalLane="10i_1" arrivalPos="110.69" arrivalSpeed="14.59" duration="61.00" routeLength="295.68" waitSteps="19" timeLoss="40.64" rerouteNo="0" devices="tripinfo_t6_22" vType="car" speedFactor="1.00" vaporized=""/>
    <tripinfo id="t7_48" depart="32.00" departLane="6o_0" departPos="5.10" departSpeed="5.00" departDelay="0.00" arrival="79.00" arrivalLane="5o_0" arrivalPos="119.95" arrivalSpeed="13.87" duration="47.00" routeLength="239.80" waitSteps="7" timeLoss="30.23" rerouteNo="0" devices="tripinfo_t7_48" vType="car" speedFactor="1.00" vaporized=""/>
    <tripinfo id="t7_59" depart="36.00" departLane="6o_0" departPos="5.10" departSpeed="5.00" departDelay="0.00" arrival="80.00" arrivalLane="5o_0" arrivalPos="119.95" arrivalSpeed="14.36" duration="44.00" routeLength="239.80" waitSteps="6" timeLoss="27.79" rerouteNo="0" devices="tripinfo_t7_59" vType="car" speedFactor="1.00" vaporized=""/>
    <tripinfo id="t6_25" depart="19.00" departLane="9o_0" departPos="5.10" departSpeed="5.00" departDelay="3.00" arrival="81.00" arrivalLane="10i_1" arrivalPos="110.69" arrivalSpeed="14.59" duration="62.00" routeLength="295.68" waitSteps="17" timeLoss="42.07" rerouteNo="0" devices="tripinfo_t6_25" vType="car" speedFactor="1.00" vaporized=""/>
    <tripinfo id="t6_39" depart="29.00" departLane="9o_0" departPos="5.10" departSpeed="5.00" departDelay="5.00" arrival="83.00" arrivalLane="10i_1" arrivalPos="110.69" arrivalSpeed="14.48" duration="54.00" routeLength="295.68" waitSteps="11" timeLoss="34.02" rerouteNo="0" devices="tripinfo_t6_39" vType="car" speedFactor="1.00" vaporized=""/>
    <tripinfo id="t7_85" depart="53.00" departLane="6o_0" departPos="5.10" departSpeed="5.00" departDelay="0.00" arrival="83.00" arrivalLane="5o_0" arrivalPos="119.95" arrivalSpeed="14.43" duration="30.00" routeLength="239.80" waitSteps="0" timeLoss="13.32" rerouteNo="0" devices="tripinfo_t7_85" vType="car" speedFactor="1.00" vaporized=""/>
    <tripinfo id="t6_40" depart="30.00" departLane="9o_0" departPos="5.10" departSpeed="5.00" departDelay="5.00" arrival="85.00" arrivalLane="10i_1" arrivalPos="110.69" arrivalSpeed="14.59" duration="55.00" routeLength="295.68" waitSteps="11" timeLoss="35.03" rerouteNo="0" devices="tripinfo_t6_40" vType="car" speedFactor="1.00" vaporized=""/>
    <tripinfo id="t7_97" depart="59.00" departLane="6o_0" departPos="5.10" departSpeed="5.00" departDelay="0.00" arrival="85.00" arrivalLane="5o_0" arrivalPos="119.95" arrivalSpeed="14.76" duration="26.00" routeLength="239.80" waitSteps="0" timeLoss="9.20" rerouteNo="0" devices="tripinfo_t7_97" vType="car" speedFactor="1.00" vaporized=""/>
    <tripinfo id="t7_104" depart="63.00" departLane="6o_0" departPos="5.10" departSpeed="5.00" departDelay="0.00" arrival="86.00" arrivalLane="5o_0" arrivalPos="119.95" arrivalSpeed="14.68" duration="23.00" routeLength="239.80" waitSteps="0" timeLoss="6.97" rerouteNo="0" devices="tripinfo_t7_104" vType="car" speedFactor="1.00" vaporized=""/>
    <tripinfo id="t6_57" depart="42.00" departLane="9o_0" departPos="5.10" departSpeed="5.00" departDelay="7.00" arrival="87.00" arrivalLane="10i_1" arrivalPos="110.69" arrivalSpeed="14.89" duration="45.00" routeLength="295.68" waitSteps="4" timeLoss="24.70" rerouteNo="0" devices="tripinfo_t6_57" vType="car" speedFactor="1.00" vaporized=""/>
    <tripinfo id="t6_60" depart="45.00" departLane="9o_0" departPos="5.10" departSpeed="5.00" departDelay="8.00" arrival="89.00" arrivalLane="10i_1" arrivalPos="110.69" arrivalSpeed="14.65" duration="44.00" routeLength="295.68" waitSteps="1" timeLoss="23.57" rerouteNo="0" devices="tripinfo_t6_60" vType="car" speedFactor="1.00" vaporized=""/>
    <tripinfo id="t6_67" depart="49.00" departLane="9o_0" departPos="5.10" departSpeed="5.00" departDelay="8.00" arrival="91.00" arrivalLane="10i_1" arrivalPos="110.69" arrivalSpeed="14.80" duration="42.00" routeLength="295.68" waitSteps="1" timeLoss="21.74" rerouteNo="0" devices="tripinfo_t6_67" vType="car" speedFactor="1.00" vaporized=""/>
    <tripinfo id="t3_82" depart="53.00" departLane="4i_0" departPos="5.10" departSpeed="5.00" departDelay="0.00" arrival="92.00" arrivalLane="6i_0" arrivalPos="119.95" arrivalSpeed="14.36" duration="39.00" routeLength="484.70" waitSteps="0" timeLoss="6.16" rerouteNo="0" devices="tripinfo_t3_82" vType="car" speedFactor="1.00" vaporized=""/>
    <tripinfo id="t6_64" depart="46.00" departLane="9o_0" departPos="5.10" departSpeed="5.00" departDelay="7.00" arrival="93.00" arrivalLane="10i_1" arrivalPos="110.69" arrivalSpeed="14.57" duration="47.00" routeLength="295.68" waitSteps="0" timeLoss="26.75" rerouteNo="0" devices="tripinfo_t6_64" vType="car" speedFactor="1.00" vaporized=""/>
    <tripinfo id="t7_118" depart="71.00" departLane="6o_0" departPos="5.10" departSpeed="5.00" departDelay="0.00" arrival="93.00" arrivalLane="5o_0" arrivalPos="119.95" arrivalSpeed="14.98" duration="22.00" routeLength="239.80" waitSteps="0" timeLoss="5.50" rerouteNo="0" devices="tripinfo_t7_118" vType="car" speedFactor="1.00" vaporized=""/>
    <tripinfo id="t6_72" depart="56.00" departLane="9o_0" departPos="5.10" departSpeed="5.00" departDelay="11.00" arrival="95.00" arrivalLane="10i_1" arrivalPos="110.69" arrivalSpeed="14.68" duration="39.00" routeLength="295.68" waitSteps="0" timeLoss="18.50" rerouteNo="0" devices="tripinfo_t6_72" vType="car" speedFactor="1.00" vaporized=""/>
    <tripinfo id="t6_91" depart="65.00" departLane="9o_0" departPos="5.10" departSpeed="5.00" departDelay="10.00" arrival="96.00" arrivalLane="10i_1" arrivalPos="110.69" arrivalSpeed="14.66" duration="31.00" routeLength="295.68" waitSteps="0" timeLoss="11.18" rerouteNo="0" devices="tripinfo_t6_91" vType="car" speedFactor="1.00" vaporized=""/>
    <tripinfo id="t3_117" depart="71.00" departLane="4i_0" departPos="5.10" departSpeed="5.00" departDelay="0.00" arrival="109.00" arrivalLane="6i_0" arrivalPos="119.95" arrivalSpeed="14.93" duration="38.00" routeLength="484.70" waitSteps="0" timeLoss="5.47" rerouteNo="0" devices="tripinfo_t3_117" vType="car" speedFactor="1.00" vaporized=""/>
    <tripinfo id="NS_24" depart="17.00" departLane="4i_0" departPos="5.10" departSpeed="5.00" departDelay="1.00" arrival="109.00" arrivalLane="8i_0" arrivalPos="119.95" arrivalSpeed="13.12" duration="92.00" routeLength="506.90" waitSteps="39" timeLoss="57.58" rerouteNo="0" devices="tripinfo_NS_24" vType="car" speedFactor="1.00" vaporized=""/>
    <tripinfo id="t2_27" depart="18.00" departLane="8o_0" departPos="5.10" departSpeed="5.00" departDelay="0.00" arrival="110.00" arrivalLane="10i_1" arrivalPos="110.69" arrivalSpeed="14.18" duration="92.00" routeLength="506.45" waitSteps="32" timeLoss="57.34" rerouteNo="0" devices="tripinfo_t2_27" vType="car" speedFactor="1.00" vaporized=""/>
    <tripinfo id="t2_16" depart="10.00" departLane="8o_0" departPos="5.10" departSpeed="5.00" departDelay="0.00" arrival="110.00" arrivalLane="10i_0" arrivalPos="110.69" arrivalSpeed="11.76" duration="100.00" routeLength="506.45" waitSteps="42" timeLoss="65.89" rerouteNo="0" devices="tripinfo_t2_16" vType="car" speedFactor="1.00" vaporized=""/>
    <tripinfo id="NS_61" depart="38.00" departLane="4i_0" departPos="5.10" departSpeed="5.00" departDelay="0.00" arrival="111.00" arrivalLane="8i_0" arrivalPos="119.95" arrivalSpeed="13.87" duration="73.00" routeLength="506.90" waitSteps="22" timeLoss="39.04" rerouteNo="0" devices="tripinfo_NS_61" vType="car" speedFactor="1.00" vaporized=""/>
    <tripinfo id="t2_30" depart="19.00" departLane="8o_0" departPos="5.10" departSpeed="5.00" departDelay="0.00" arrival="112.00" arrivalLane="10i_1" arrivalPos="110.69" arrivalSpeed="14.47" duration="93.00" routeLength="506.45" waitSteps="32" timeLoss="58.28" rerouteNo="0" devices="tripinfo_t2_30" vType="car" speedFactor="1.00" vaporized=""/>
    <tripinfo id="NS_88" depart="56.00" departLane="4i_0" departPos="5.10" departSpeed="5.00" departDelay="1.00" arrival="114.00" arrivalLane="8i_0" arrivalPos="119.95" arrivalSpeed="14.08" duration="58.00" routeLength="506.90" waitSteps="2" timeLoss="23.77" rerouteNo="0" devices="tripinfo_NS_88" vType="car" speedFactor="1.00" vaporized=""/>
    <tripinfo id="t3_133" depart="80.00" departLane="4i_0" departPos="5.10" departSpeed="5.00" departDelay="1.00" arrival="119.00" arrivalLane="6i_0" arrivalPos="119.95" arrivalSpeed="14.33" duration="39.00" routeLength="484.70" waitSteps="0" timeLoss="5.99" rerouteNo="0" devices="tripinfo_t3_133" vType="car" speedFactor="1.00" vaporized=""/>
    <tripinfo id="NS_140" depart="84.00" departLane="4i_0" departPos="5.10" departSpeed="5.00" departDelay="0.00" arrival="123.00" arrivalLane="8i_0" arrivalPos="119.95" arrivalSpeed="14.50" duration="39.00" routeLength="506.90" waitSteps="0" timeLoss="5.12" rerouteNo="0" devices="tripinfo_NS_140" vType="car" speedFactor="1.00" vaporized=""/>
    <tripinfo id="SN_49" depart="33.00" departLane="8o_0" departPos="5.10" departSpeed="5.00" departDelay="0.00" arrival="127.00" arrivalLane="4o_0" arrivalPos="119.95" arrivalSpeed="14.77" duration="94.00" routeLength="506.90" waitSteps="41" timeLoss="59.77" rerouteNo="0" devices="tripinfo_SN_49" vType="car" speedFactor="1.00" vaporized=""/>
    <tripinfo id="SN_66" depart="42.00" departLane="8o_0" departPos="5.10" departSpeed="5.00" departDelay="1.00" arrival="129.00" arrivalLane="4o_0" arrivalPos="119.95" arrivalSpeed="14.33" duration="87.00" routeLength="506.90" waitSteps="33" timeLoss="53.18" rerouteNo="0" devices="tripinfo_SN_66" vType="car" speedFactor="1.00" vaporized=""/>
    <tripinfo id="t9_14" depart="10.00" departLane="9o_0" departPos="5.10" departSpeed="5.00" departDelay="2.00" arrival="130.00" arrivalLane="6i_0" arrivalPos="119.95" arrivalSpeed="14.41" duration="120.00" routeLength="1055.35" waitSteps="22" timeLoss="48.78" rerouteNo="0" devices="tripinfo_t9_14" vType="car" speedFactor="1.00" vaporized=""/>
    <tripinfo id="SN_77" depart="50.00" departLane="8o_0" departPos="5.10" departSpeed="5.00" departDelay="0.00" arrival="131.00" arrivalLane="4o_0" arrivalPos="119.95" arrivalSpeed="14.42" duration="81.00" routeLength="506.90" waitSteps="28" timeLoss="47.19" rerouteNo="0" devices="tripinfo_SN_77" vType="car" speedFactor="1.00" vaporized=""/>
    <tripinfo id="SN_80" depart="52.00" departLane="8o_0" departPos="5.10" departSpeed="5.00" departDelay="0.00" arrival="133.00" arrivalLane="4o_0" arrivalPos="119.95" arrivalSpeed="14.54" duration="81.00" routeLength="506.90" waitSteps="25" timeLoss="46.87" rerouteNo="0" devices="tripinfo_SN_80" vType="car" speedFactor="1.00" vaporized=""/>
    <tripinfo id="SN_96" depart="58.00" departLane="8o_0" departPos="5.10" departSpeed="5.00" departDelay="0.00" arrival="136.00" arrivalLane="4o_0" arrivalPos="119.95" arrivalSpeed="14.58" duration="78.00" routeLength="506.90" waitSteps="22" timeLoss="43.55" rerouteNo="0" devices="tripinfo_SN_96" vType="car" speedFactor="1.00" vaporized=""/>
    <tripinfo id="EWBottom_34" depart="21.00" departLane="11i_0" departPos="5.10" departSpeed="5.00" departDelay="0.00" arrival="138.00" arrivalLane="9i_1" arrivalPos="163.71" arrivalSpeed="14.46" duration="117.00" routeLength="560.43" waitSteps="41" timeLoss="79.28" rerouteNo="0" devices="tripinfo_EWBottom_34" vType="car" speedFactor="1.00" vaporized=""/>
    <tripinfo id="SN_115" depart="70.00" departLane="8o_0" departPos="5.10" departSpeed="5.00" departDelay="0.00" arrival="138.00" arrivalLane="4o_0" arrivalPos="119.95" arrivalSpeed="14.72" duration="68.00" routeLength="506.90" waitSteps="15" timeLoss="33.62" rerouteNo="0" devices="tripinfo_SN_115" vType="car" speedFactor="1.00" vaporized=""/>
    <tripinfo id="t8_21" depart="15.00" departLane="4i_0" departPos="5.10" departSpeed="5.00" departDelay="3.00" arrival="140.00" arrivalLane="11o_1" arrivalPos="119.95" arrivalSpeed="13.12" duration="125.00" routeLength="506.44" waitSteps="67" timeLoss="91.02" rerouteNo="0" devices="tripinfo_t8_21" vType="car" speedFactor="1.00" vaporized=""/>
    <tripinfo id="EWBottom_11" depart="7.00" departLane="11i_0" departPos="5.10" departSpeed="5.00" departDelay="0.00" arrival="140.00" arrivalLane="9i_1" arrivalPos="163.71" arrivalSpeed="14.30" duration="133.00" routeLength="560.43" waitSteps="52" timeLoss="95.27" rerouteNo="0" devices="tripinfo_EWBottom_11" vType="car" speedFactor="1.00" vaporized=""/>
    <tripinfo id="SN_128" depart="77.00" departLane="8o_0" departPos="5.10" departSpeed="5.00" departDelay="0.00" arrival="140.00" arrivalLane="4o_0" arrivalPos="119.95" arrivalSpeed="14.98" duration="63.00" routeLength="506.90" waitSteps="8" timeLoss="28.32" rerouteNo="0" devices="tripinfo_SN_128" vType="car" speedFactor="1.00" vaporized=""/>
    <tripinfo id="SN_160" depart="99.00" departLane="8o_0" departPos="5.10" departSpeed="5.00" departDelay="0.00" arrival="141.00" arrivalLane="4o_0" arrivalPos="119.95" arrivalSpeed="14.50" duration="42.00" routeLength="506.90" waitSteps="0" timeLoss="8.04" rerouteNo="0" devices="tripinfo_SN_160" vType="car" speedFactor="1.00" vaporized=""/>
    <tripinfo id="EWBottom_43" depart="26.00" departLane="11i_0" departPos="5.10" departSpeed="5.00" departDelay="0.00" arrival="142.00" arrivalLane="9i_1" arrivalPos="163.71" arrivalSpeed="14.70" duration="116.00" routeLength="560.43" waitSteps="34" timeLoss="78.00" rerouteNo="0" devices="tripinfo_EWBottom_43" vType="car" speedFactor="1.00" vaporized=""/>
    <tripinfo id="t8_32" depart="23.00" departLane="4i_0" departPos="5.10" departSpeed="5.00" departDelay="4.00" arrival="143.00" arrivalLane="11o_1" arrivalPos="119.95" arrivalSpeed="13.64" duration="120.00" routeLength="506.44" waitSteps="61" timeLoss="85.84" rerouteNo="0" devices="tripinfo_t8_32" vType="car" speedFactor="1.00" vaporized=""/>
    <tripinfo id="t8_47" depart="34.00" departLane="4i_0" departPos="5.10" departSpeed="5.00" departDelay="3.00" arrival="145.00" arrivalLane="11o_1" arrivalPos="119.95" arrivalSpeed="13.12" duration="111.00" routeLength="506.44" waitSteps="50" timeLoss="77.11" rerouteNo="0" devices="tripinfo_t8_47" vType="car" speedFactor="1.00" vaporized=""/>
    <tripinfo id="EWBottom_75" depart="49.00" departLane="11i_0" departPos="5.10" departSpeed="5.00" departDelay="0.00" arrival="146.00" arrivalLane="9i_1" arrivalPos="163.71" arrivalSpeed="14.76" duration="97.00" routeLength="560.43" waitSteps="25" timeLoss="58.69" rerouteNo="0" devices="tripinfo_EWBottom_75" vType="car" speedFactor="1.00" vaporized=""/>
    <tripinfo id="EWBottom_106" depart="65.00" departLane="11i_0" departPos="5.10" departSpeed="5.00" departDelay="0.00" arrival="148.00" arrivalLane="9i_1" arrivalPos="163.71" arrivalSpeed="14.31" duration="83.00" routeLength="560.43" waitSteps="12" timeLoss="45.03" rerouteNo="0" devices="tripinfo_EWBottom_106" vType="car" speedFactor="1.00" vaporized=""/>
    <tripinfo id="t3_176" depart="110.00" departLane="4i_0" departPos="5.10" departSpeed="5.00" departDelay="2.00" arrival="150.00" arrivalLane="6i_0" arrivalPos="119.95" arrivalSpeed="14.32" duration="40.00" routeLength="484.70" waitSteps="0" timeLoss="7.19" rerouteNo="0" devices="tripinfo_t3_176" vType="car" speedFactor="1.00" vaporized=""/>
    <tripinfo id="t3_177" depart="112.00" departLane="4i_0" departPos="5.10" departSpeed="5.00" departDelay="3.00" arrival="152.00" arrivalLane="6i_0" arrivalPos="119.95" arrivalSpeed="14.32" duration="40.00" routeLength="484.70" waitSteps="0" timeLoss="6.86" rerouteNo="0" devices="tripinfo_t3_177" vType="car" speedFactor="1.00" vaporized=""/>
    <tripinfo id="SN_62" depart="38.00" departLane="8o_0" departPos="5.10" departSpeed="5.00" departDelay="0.00" arrival="152.00" arrivalLane="4o_0" arrivalPos="119.95" arrivalSpeed="13.62" duration="114.00" routeLength="506.90" waitSteps="48" timeLoss="80.08" rerouteNo="0" devices="tripinfo_SN_62" vType="car" speedFactor="1.00" vaporized=""/>
    <tripinfo id="WEBottom_37" depart="23.00" departLane="9o_0" departPos="5.10" departSpeed="5.00" departDelay="0.00" arrival="154.00" arrivalLane="11o_1" arrivalPos="119.95" arrivalSpeed="13.81" duration="131.00" routeLength="555.37" waitSteps="61" timeLoss="93.92" rerouteNo="0" devices="tripinfo_WEBottom_37" vType="car" speedFactor="1.00" vaporized=""/>
    <tripinfo id="SN_173" depart="107.00" departLane="8o_0" departPos="5.10" departSpeed="5.00" departDelay="0.00" arrival="154.00" arrivalLane="4o_0" arrivalPos="119.95" arrivalSpeed="14.37" duration="47.00" routeLength="506.90" waitSteps="0" timeLoss="13.10" rerouteNo="0" devices="tripinfo_SN_173" vType="car" speedFactor="1.00" vaporized=""/>
    <tripinfo id="WEBottom_33" depart="21.00" departLane="9o_0" departPos="5.10" departSpeed="5.00" departDelay="1.00" arrival="156.00" arrivalLane="11o_0" arrivalPos="119.95" arrivalSpeed="13.87" duration="135.00" routeLength="555.37" waitSteps="63" timeLoss="97.11" rerouteNo="0" devices="tripinfo_WEBottom_33" vType="car" speedFactor="1.00" vaporized=""/>
    <tripinfo id="t7_145" depart="87.00" departLane="6o_0" departPos="5.10" departSpeed="5.00" departDelay="0.00" arrival="157.00" arrivalLane="5o_1" arrivalPos="119.95" arrivalSpeed="13.71" duration="70.00" routeLength="239.80" waitSteps="38" timeLoss="53.38" rerouteNo="0" devices="tripinfo_t7_145" vType="car" speedFactor="1.00" vaporized=""/>
    <tripinfo id="WEBottom_38" depart="26.00" departLane="9o_0" departPos="5.10" departSpeed="5.00" departDelay="2.00" arrival="157.00" arrivalLane="11o_0" arrivalPos="119.95" arrivalSpeed="13.46" duration="131.00" routeLength="555.37" waitSteps="57" timeLoss="93.96" rerouteNo="0" devices="tripinfo_WEBottom_38" vType="car" speedFactor="1.00" vaporized=""/>
    <tripinfo id="WEBottom_53" depart="36.00" departLane="9o_0" departPos="5.10" departSpeed="5.00" departDelay="1.00" arrival="157.00" arrivalLane="11o_1" arrivalPos="119.95" arrivalSpeed="14.12" duration="121.00" routeLength="555.37" waitSteps="48" timeLoss="83.22" rerouteNo="0" devices="tripinfo_WEBottom_53" vType="car" speedFactor="1.00" vaporized=""/>
    <tripinfo id="t5_51" depart="34.00" departLane="9o_0" departPos="5.10" departSpeed="5.00" departDelay="0.00" arrival="159.00" arrivalLane="8i_0" arrivalPos="119.95" arrivalSpeed="14.08" duration="125.00" routeLength="544.27" waitSteps="52" timeLoss="88.04" rerouteNo="0" devices="tripinfo_t5_51" vType="car" speedFactor="1.00" vaporized=""/>
    <tripinfo id="t7_135" depart="80.00" departLane="6o_0" departPos="5.10" departSpeed="5.00" departDelay="0.00" arrival="159.00" arrivalLane="5o_0" arrivalPos="119.95" arrivalSpeed="12.33" duration="79.00" routeLength="239.80" waitSteps="43" timeLoss="62.56" rerouteNo="0" devices="tripinfo_t7_135" vType="car" speedFactor="1.00" vaporized=""/>
    <tripinfo id="WEBottom_58" depart="43.00" departLane="9o_0" departPos="5.10" departSpeed="5.00" departDelay="7.00" arrival="160.00" arrivalLane="11o_1" arrivalPos="119.95" arrivalSpeed="13.34" duration="117.00" routeLength="555.37" waitSteps="45" timeLoss="79.60" rerouteNo="0" devices="tripinfo_WEBottom_58" vType="car" speedFactor="1.00" vaporized=""/>
    <tripinfo id="t3_193" depart="123.00" departLane="4i_0" departPos="5.10" departSpeed="5.00" departDelay="3.00" arrival="161.00" arrivalLane="6i_0" arrivalPos="119.95" arrivalSpeed="14.46" duration="38.00" routeLength="484.70" waitSteps="0" timeLoss="5.36" rerouteNo="0" devices="tripinfo_t3_193" vType="car" speedFactor="1.00" vaporized=""/>
    <tripinfo id="SN_165" depart="102.00" departLane="8o_0" departPos="5.10" departSpeed="5.00" departDelay="0.00" arrival="161.00" arrivalLane="4o_1" arrivalPos="119.95" arrivalSpeed="13.66" duration="59.00" routeLength="506.90" waitSteps="5" timeLoss="24.75" rerouteNo="0" devices="tripinfo_SN_165" vType="car" speedFactor="1.00" vaporized=""/>
    <tripinfo id="t5_56" depart="39.00" departLane="9o_0" departPos="5.10" departSpeed="5.00" departDelay="4.00" arrival="161.00" arrivalLane="8i_0" arrivalPos="119.95" arrivalSpeed="13.93" duration="122.00" routeLength="544.27" waitSteps="46" timeLoss="85.28" rerouteNo="0" devices="tripinfo_t5_56" vType="car" speedFactor="1.00" vaporized=""/>
    <tripinfo id="t5_69" depart="51.00" departLane="9o_0" departPos="5.10" departSpeed="5.00" departDelay="9.00" arrival="163.00" arrivalLane="8i_0" arrivalPos="119.95" arrivalSpeed="14.79" duration="112.00" routeLength="544.27" waitSteps="41" timeLoss="74.93" rerouteNo="0" devices="tripinfo_t5_69" vType="car" speedFactor="1.00" vaporized=""/>
    <tripinfo id="t7_200" depart="125.00" departLane="6o_0" departPos="5.10" departSpeed="5.00" departDelay="0.00" arrival="163.00" arrivalLane="5o_0" arrivalPos="119.95" arrivalSpeed="13.24" duration="38.00" routeLength="239.80" waitSteps="0" timeLoss="21.15" rerouteNo="0" devices="tripinfo_t7_200" vType="car" speedFactor="1.00" vaporized=""/>
    <tripinfo id="t6_101" depart="71.00" departLane="9o_0" departPos="5.10" departSpeed="5.00" departDelay="9.00" arrival="164.00" arrivalLane="10i_1" arrivalPos="110.69" arrivalSpeed="12.96" duration="93.00" routeLength="295.68" waitSteps="48" timeLoss="72.82" rerouteNo="0" devices="tripinfo_t6_101" vType="car" speedFactor="1.00" vaporized=""/>
    <tripinfo id="t7_201" depart="128.00" departLane="6o_0" departPos="5.10" departSpeed="5.00" departDelay="2.00" arrival="164.00" arrivalLane="5o_0" arrivalPos="119.95" arrivalSpeed="12.86" duration="36.00" routeLength="239.80" waitSteps="0" timeLoss="19.85" rerouteNo="0" devices="tripinfo_t7_201" vType="car" speedFactor="1.00" vaporized=""/>
    <tripinfo id="t5_84" depart="60.00" departLane="9o_0" departPos="5.10" departSpeed="5.00" departDelay="7.00" arrival="165.00" arrivalLane="8i_0" arrivalPos="119.95" arrivalSpeed="13.69" duration="105.00" routeLength="544.27" waitSteps="36" timeLoss="68.28" rerouteNo="0" devices="tripinfo_t5_84" vType="car" speedFactor="1.00" vaporized=""/>
    <tripinfo id="t6_113" depart="79.00" departLane="9o_0" departPos="5.10" departSpeed="5.00" departDelay="11.00" arrival="166.00" arrivalLane="10i_1" arrivalPos="110.69" arrivalSpeed="14.21" duration="87.00" routeLength="295.68" waitSteps="44" timeLoss="66.42" rerouteNo="0" devices="tripinfo_t6_113" vType="car" speedFactor="1.00" vaporized=""/>